 &FCI NORB=  16,NELEC=10,MS2=0,
  ORBSYM=1,1,1,1,1,1,1,1,1,1,1,1,1,1,1,1,
  ISYM=1,
 &END
 0.8791116954172179    1    1    1    1
 -4.663587224729149e-15    2    1    1    1
 0.04062208665243468    2    1    2    1
 0.5332084671757094    2    2    1    1
 4.596583530469545e-15    2    2    2    1
 0.5427647819927728    2    2    2    2
 0.09878434622626162    3    1    3    1
 1.431688968767109e-15    3    2    3    1
 0.04538788456580688    3    2    3    2
 0.6530075382670537    3    3    1    1
 0.5069091479049036    3    3    2    2
 0.5868374629053926    3    3    3    3
 0.09878434622626152    4    1    4    1
 1.360267150654626e-15    4    2    4    1
 0.04538788456580684    4    2    4    2
 0.02333393336695899    4    3    4    3
 0.6530075382670529    4    4    1    1
 0.506909147904903    4    4    2    2
 0.540169596171474    4    4    3    3
 0.5868374629053913    4    4    4    4
 0.1417640171043408    5    1    1    1
 0.01218291151547076    5    1    2    2
 0.05545643894172975    5    1    3    3
 0.05545643894172966    5    1    4    4
 0.05622877759217301    5    1    5    1
 -1.82276069238263e-15    5    2    1    1
 -0.07701760568350156    5    2    2    1
 -1.364620222377155e-14    5    2    2    2
 -3.243932900076629e-15    5    2    3    3
 -3.065772225115896e-15    5    2    4    4
 -2.822178254979768e-15    5    2    5    1
 0.2149840856131634    5    2    5    2
 -0.01988639979477828    5    3    3    1
 0.02971307151291282    5    3    5    3
 -0.01988639979477826    5    4    4    1
 0.02971307151291279    5    4    5    4
 0.5747993865966379    5    5    1    1
 -5.712444406391626e-15    5    5    2    1
 0.5469996589532586    5    5    2    2
 0.5147551606324662    5    5    3    3
 0.5147551606324656    5    5    4    4
 0.03475048463752218    5    5    5    1
 1.277450367709321e-14    5    5    5    2
 0.5652617550455186    5    5    5    5
 0.006332443949123113    6    1    3    2
 -0.03122552981116776    6    1    4    2
 0.02813874015266216    6    1    6    1
 0.01229139902314465    6    2    3    1
 -0.06060937131094689    6    2    4    1
 -2.747801985947262e-15    6    2    4    2
 -0.007995831873145927    6    2    5    3
 0.03942776099180113    6    2    5    4
 0.07034741673978509    6    2    6    2
 0.01390091282314305    6    3    2    1
 1.844810654065554e-15    6    3    2    2
 -0.0275616736963996    6    3    5    2
 -1.576863639662918e-15    6    3    5    5
 0.01889442131646421    6    3    6    3
 -0.06854594707018365    6    4    2    1
 -9.397864431104352e-15    6    4    2    2
 -2.916070163117013e-15    6    4    3    3
 -3.299996316789497e-15    6    4    4    4
 -2.000461428453004e-15    6    4    5    1
 0.1359076954438388    6    4    5    2
 7.412473412848897e-15    6    4    5    5
 -0.02424234904990062    6    4    6    3
 0.1335181207664744    6    4    6    4
 -0.007371985616410154    6    5    3    2
 -1.787930697591533e-15    6    5    4    1
 0.03635155059913183    6    5    4    2
 2.104050169770416e-15    6    5    5    4
 -0.02059463286370855    6    5    6    1
 1.294591604056317e-15    6    5    6    2
 0.03679360691757438    6    5    6    5
 0.5364755193028197    6    6    1    1
 -1.46302241155194e-15    6    6    2    1
 0.4769548934464187    6    6    2    2
 0.4763481971761319    6    6    3    3
 -0.007076735321808822    6    6    4    3
 0.5098087162431816    6    6    4    4
 0.02582232974820083    6    6    5    1
 0.4782233452418539    6    6    5    5
 0.4715700510024651    6    6    6    6
 -0.03122552981116778    7    1    3    2
 -0.006332443949123111    7    1    4    2
 -1.007223818239034e-15    7    1    5    3
 0.02813874015266216    7    1    7    1
 -0.06060937131094693    7    2    3    1
 -2.700530771226894e-15    7    2    3    2
 -0.01229139902314464    7    2    4    1
 0.03942776099180117    7    2    5    3
 0.007995831873145915    7    2    5    4
 0.07034741673978515    7    2    7    2
 -0.0685459470701837    7    3    2    1
 -8.609974712359136e-15    7    3    2    2
 -2.499736528882579e-15    7    3    3    3
 -1.911665826391813e-15    7    3    4    4
 -1.854636236253704e-15    7    3    5    1
 0.1359076954438388    7    3    5    2
 8.219119829178112e-15    7    3    5    5
 -0.02424234904990064    7    3    6    3
 0.1055618297335942    7    3    6    4
 0.1335181207664746    7    3    7    3
 -0.01390091282314304    7    4    2    1
 -2.092483087842711e-15    7    4    2    2
 0.02756167369639958    7    4    5    2
 1.310583586100478e-15    7    4    5    5
 0.009061869716416104    7    4    6    3
 0.02424234904990059    7    4    6    4
 0.02424234904990062    7    4    7    3
 0.01889442131646419    7    4    7    4
 -1.826446979769081e-15    7    5    3    1
 0.03635155059913187    7    5    3    2
 0.007371985616410144    7    5    4    2
 2.124602577202594e-15    7    5    5    3
 -0.02059463286370856    7    5    7    1
 1.464730029973604e-15    7    5    7    2
 0.03679360691757439    7    5    7    5
 -0.007076735321808964    7    6    3    3
 0.01673025953352511    7    6    4    3
 0.007076735321808685    7    6    4    4
 0.01785219859063552    7    6    7    6
 0.5364755193028201    7    7    1    1
 -1.686368059083954e-15    7    7    2    1
 0.4769548934464192    7    7    2    2
 0.5098087162431825    7    7    3    3
 0.007076735321808822    7    7    4    3
 0.4763481971761317    7    7    4    4
 0.02582232974820077    7    7    5    1
 1.446759378964657e-15    7    7    5    2
 0.4782233452418542    7    7    5    5
 0.4358656538211947    7    7    6    6
 1.700029006457271e-15    7    7    7    3
 0.4715700510024662    7    7    7    7
 -1.198515028541514e-14    8    1    1    1
 0.02481243140593523    8    1    2    1
 -2.310217989132113e-15    8    1    3    3
 -2.332842662669749e-15    8    1    4    4
 -4.806308888209709e-15    8    1    5    1
 -0.03509624808540836    8    1    5    2
 -7.933324136510933e-15    8    1    5    5
 0.008287439416491172    8    1    6    3
 -0.04086568924052249    8    1    6    4
 -2.176210600612904e-15    8    1    6    6
 -0.04086568924052249    8    1    7    3
 -0.008287439416491177    8    1    7    4
 -2.348815586472597e-15    8    1    7    7
 0.01865293571519699    8    1    8    1
 0.1005203070801214    8    2    1    1
 -1.44881936309238e-15    8    2    2    1
 0.05607659609577223    8    2    2    2
 0.07989190448655853    8    2    3    3
 0.07989190448655842    8    2    4    4
 0.01375213886350892    8    2    5    1
 4.677197350125631e-15    8    2    5    2
 0.05502444780551152    8    2    5    5
 0.05844224577309574    8    2    6    6
 1.128003940253919e-15    8    2    7    3
 0.05844224577309569    8    2    7    7
 0.03454465557800848    8    2    8    2
 5.641198771132172e-15    8    3    3    1
 0.0195656707238509    8    3    3    2
 -1.983331034127733e-15    8    3    5    3
 0.003427945915609016    8    3    6    1
 -0.002233354090626429    8    3    6    5
 -0.01690333593773736    8    3    7    1
 -4.335073966466041e-15    8    3    7    2
 0.01101275673279446    8    3    7    5
 0.01271470433391585    8    3    8    3
 5.651430929135004e-15    8    4    4    1
 0.01956567072385089    8    4    4    2
 -1.987536288013055e-15    8    4    5    4
 -0.01690333593773736    8    4    6    1
 -4.400776618118662e-15    8    4    6    2
 0.01101275673279444    8    4    6    5
 -0.003427945915609018    8    4    7    1
 0.002233354090626428    8    4    7    5
 0.01271470433391588    8    4    8    4
 -1.654426107829815e-14    8    5    1    1
 -0.0007261783403666387    8    5    2    1
 -2.681828283751519e-15    8    5    2    2
 -9.297250469497698e-15    8    5    3    3
 -9.370497431853276e-15    8    5    4    4
 -5.366055364809663e-15    8    5    5    1
 -0.0110256273179893    8    5    5    2
 -5.85946222098066e-15    8    5    5    5
 -3.572503254179154e-05    8    5    6    3
 0.000176161538515219    8    5    6    4
 -5.830324287595112e-15    8    5    6    6
 0.0001761615385151914    8    5    7    3
 3.572503254180332e-05    8    5    7    4
 -5.729791641151394e-15    8    5    7    7
 -0.004947212782174391    8    5    8    1
 -8.744524201964587e-15    8    5    8    2
 0.02194458996079065    8    5    8    5
 0.005838607808030583    8    6    3    1
 -0.02879040440470412    8    6    4    1
 -0.001674457054892149    8    6    5    3
 0.008256813499674989    8    6    5    4
 0.01942738219668139    8    6    6    2
 -3.606537540400828e-15    8    6    8    4
 0.01641507223746132    8    6    8    6
 -0.02879040440470411    8    7    3    1
 -0.005838607808030588    8    7    4    1
 0.008256813499675001    8    7    5    3
 0.001674457054892146    8    7    5    4
 0.01942738219668136    8    7    7    2
 -3.492865718879301e-15    8    7    8    3
 0.01641507223746098    8    7    8    7
 0.3595153745181714    8    8    1    1
 1.072622893283359e-14    8    8    2    1
 0.3650547108950931    8    8    2    2
 0.3447827042147692    8    8    3    3
 0.3447827042147682    8    8    4    4
 0.005809359860855994    8    8    5    1
 -3.73152030108681e-14    8    8    5    2
 0.368716092991547    8    8    5    5
 5.172945405362839e-15    8    8    6    3
 -2.525860380228617e-14    8    8    6    4
 0.3373185836544328    8    8    6    6
 -2.516389874251956e-14    8    8    7    3
 -5.240708041143183e-15    8    8    7    4
 0.3373185836544354    8    8    7    7
 -0.002278736196910816    8    8    8    2
 2.471287063876559e-14    8    8    8    5
 0.3517380677675989    8    8    8    8
 -0.0884497874259068    9    1    1    1
 -4.767738395923538e-15    9    1    2    1
 -0.02348054064360617    9    1    2    2
 -0.03255978615425918    9    1    3    3
 -0.03255978615425912    9    1    4    4
 -0.03597000679907618    9    1    5    1
 9.370650956574966e-15    9    1    5    2
 -0.04070865894780509    9    1    5    5
 -1.98227393700956e-15    9    1    6    3
 9.822329581632427e-15    9    1    6    4
 -0.02180054263510244    9    1    6    6
 9.738087072830304e-15    9    1    7    3
 2.003300682892201e-15    9    1    7    4
 -0.02180054263510248    9    1    7    7
 1.4814826476044e-15    9    1    8    1
 -0.005913553359013158    9    1    8    2
 3.352082066782058e-15    9    1    8    5
 -0.01375825920959737    9    1    8    8
 0.03294974604481658    9    1    9    1
 -1.937371704036073e-14    9    2    1    1
 -0.001583019773538285    9    2    2    1
 -1.38238487497333e-14    9    2    2    2
 -1.61710922430558e-14    9    2    3    3
 -1.611907557918799e-14    9    2    4    4
 -1.96655300550852e-15    9    2    5    1
 0.01613273336717898    9    2    5    2
 -1.13238411703076e-14    9    2    5    5
 -0.000647420435278086    9    2    6    3
 0.003192455592904926    9    2    6    4
 -1.2116609798829e-14    9    2    6    6
 0.003192455592904927    9    2    7    3
 0.0006474204352780826    9    2    7    4
 -1.213872752314771e-14    9    2    7    7
 0.00364640012217738    9    2    8    1
 -3.236560325303728e-15    9    2    8    2
 -0.01696795907744703    9    2    8    5
 -1.079691891447965e-14    9    2    8    8
 0.01438716773011603    9    2    9    2
 0.02146036961587862    9    3    3    1
 -3.658640231052335e-15    9    3    3    2
 -0.01146186381019723    9    3    5    3
 0.003475353208162986    9    3    6    2
 3.964832477089397e-15    9    3    7    1
 -0.01713710315917729    9    3    7    2
 -2.870750512307119e-15    9    3    7    5
 1.149145882617386e-15    9    3    8    3
 0.001917691234230345    9    3    8    6
 -0.009456210790680063    9    3    8    7
 0.01764738151815188    9    3    9    3
 0.02146036961587861    9    4    4    1
 -3.669699093211687e-15    9    4    4    2
 -0.01146186381019722    9    4    5    4
 3.908860539934833e-15    9    4    6    1
 -0.01713710315917726    9    4    6    2
 -2.82651506366971e-15    9    4    6    5
 -0.003475353208162976    9    4    7    2
 1.14911237187641e-15    9    4    8    4
 -0.009456210790680021    9    4    8    6
 -0.00191769123423033    9    4    8    7
 0.01764738151815188    9    4    9    4
 -0.1161074605604839    9    5    1    1
 1.663884416532035e-15    9    5    2    1
 -0.03740007636424729    9    5    2    2
 -0.0707879044588977    9    5    3    3
 -0.07078790445889759    9    5    4    4
 -0.03098565906404624    9    5    5    1
 1.907762142705494e-15    9    5    5    2
 -0.04663562524312494    9    5    5    5
 -0.04537217467486609    9    5    6    6
 -0.04537217467486609    9    5    7    7
 3.389839407438866e-15    9    5    8    1
 -0.03031695969137915    9    5    8    2
 0.006660842108435872    9    5    8    8
 0.0167489560417301    9    5    9    1
 9.636836142447314e-15    9    5    9    2
 0.0361652768951107    9    5    9    5
 -1.263732499721948e-15    9    6    3    1
 0.0004919177122439389    9    6    3    2
 6.135600043983246e-15    9    6    4    1
 -0.002425665558467615    9    6    4    2
 -1.702776146063453e-15    9    6    5    4
 0.001963472303955468    9    6    6    1
 -4.004853089781268e-15    9    6    6    2
 -0.0001590898867136863    9    6    6    5
 0.0009049509572409381    9    6    8    3
 -0.004462348710861461    9    6    8    4
 -2.343367470555857e-15    9    6    8    6
 2.783336712150475e-15    9    6    9    4
 0.006577765070404023    9    6    9    6
 6.197865435935909e-15    9    7    3    1
 -0.002425665558467615    9    7    3    2
 1.231658644262098e-15    9    7    4    1
 -0.0004919177122439402    9    7    4    2
 -1.745213131995604e-15    9    7    5    3
 0.00196347230395547    9    7    7    1
 -4.063291586878237e-15    9    7    7    2
 -0.0001590898867136705    9    7    7    5
 -0.004462348710861444    9    7    8    3
 -0.0009049509572409492    9    7    8    4
 -2.438153845485402e-15    9    7    8    7
 2.803529977613017e-15    9    7    9    3
 0.006577765070404034    9    7    9    7
 1.468061241148566e-14    9    8    1    1
 0.0296744447436312    9    8    2    1
 6.970552607343805e-15    9    8    2    2
 1.014466288751237e-14    9    8    3    3
 1.003412593492863e-14    9    8    4    4
 4.457317761413782e-15    9    8    5    1
 -0.09047165205264047    9    8    5    2
 -3.61863317088762e-15    9    8    5    5
 0.01114363025905997    9    8    6    3
 -0.05494967845820287    9    8    6    4
 4.454769886308441e-15    9    8    6    6
 -0.05494967845820301    9    8    7    3
 -0.01114363025905993    9    8    7    4
 3.892719480091955e-15    9    8    7    7
 0.006949923001262801    9    8    8    1
 -3.127706427186183e-15    9    8    8    2
 0.03387675594087957    9    8    8    5
 3.011479954295737e-14    9    8    8    8
 -1.945817638959735e-15    9    8    9    1
 -0.02765544636749603    9    8    9    2
 -1.356467022040064e-14    9    8    9    5
 0.0920721598428364    9    8    9    8
 0.4469965527718874    9    9    1    1
 -1.280160873140535e-14    9    9    2    1
 0.3831021995598919    9    9    2    2
 0.4007825772866311    9    9    3    3
 0.4007825772866306    9    9    4    4
 0.02832227853008884    9    9    5    1
 3.674534634900972e-14    9    9    5    2
 0.3930527702047033    9    9    5    5
 -4.474719206282174e-15    9    9    6    3
 2.184697193118035e-14    9    9    6    4
 0.3697367863382292    9    9    6    6
 2.236752449924495e-14    9    9    7    3
 4.282381740883245e-15    9    9    7    4
 0.3697367863382295    9    9    7    7
 -4.609051855453128e-15    9    9    8    1
 0.02187663993156442    9    9    8    2
 -1.689447193253812e-14    9    9    8    5
 0.3294699479428511    9    9    8    8
 -0.01642017073459227    9    9    9    1
 6.79664657887713e-15    9    9    9    2
 -0.02420511347149879    9    9    9    5
 -3.33066907387547e-14    9    9    9    8
 0.3539200764396618    9    9    9    9
 0.001389270264689621   10    1    3    1
 0.03454473839370584   10    1    4    1
 1.417702760742046e-15   10    1    4    2
 2.803326047298763e-06   10    1    5    3
 6.970577820420261e-05   10    1    5    4
 -1.184524754758304e-15   10    1    6    1
 -0.01555541416628073   10    1    6    2
 -0.003811260401100882   10    1    7    2
 -0.01091278929758569   10    1    8    6
 -0.002673762412935502   10    1    8    7
 -0.0001007311386290472   10    1    9    3
 -0.002504718426992241   10    1    9    4
 2.450971995076202e-15   10    1    9    6
 0.0224859164256298   10    1   10    1
 0.0005345592575322419   10    2    3    2
 1.007020530331693e-15   10    2    4    1
 0.01329202112557307   10    2    4    2
 -0.009673675452118485   10    2    6    1
 -1.014433762686062e-15   10    2    6    2
 0.006891433975153718   10    2    6    5
 -0.002370164869263403   10    2    7    1
 0.001688482809621296   10    2    7    5
 0.0003474283820896158   10    2    8    3
 0.00863894007874387   10    2    8    4
 -1.156803060460565e-15   10    2    8    6
 -2.07864893546657e-15   10    2    9    4
 -0.002156607312101038   10    2    9    6
 -0.0005283942916256368   10    2    9    7
 1.562497960877485e-15   10    2   10    1
 0.01301242139150896   10    2   10    2
 0.006331714225169963   10    3    1    1
 0.003798228765874607   10    3    2    2
 0.004520641759926293   10    3    3    3
 0.003710998507653299   10    3    4    3
 0.004222154631714048   10    3    4    4
 0.001248933126506839   10    3    5    1
 0.00413014378032015   10    3    5    5
 0.002513609538126296   10    3    6    6
 0.001722084428638454   10    3    7    6
 0.004136580395481845   10    3    7    7
 0.001246225343171817   10    3    8    2
 0.001441273129130051   10    3    8    8
 -0.001179896395580938   10    3    9    1
 -0.001156786456531621   10    3    9    5
 0.001602674939995378   10    3    9    9
 0.008108570811244576   10    3   10    3
 0.1574405045954584   10    4    1    1
 1.728435103376391e-15   10    4    2    1
 0.09444441618844995   10    4    2    2
 0.1049854955636861   10    4    3    3
 0.000149243564106139   10    4    4    3
 0.1124074925789925   10    4    4    4
 0.03105520158530897   10    4    5    1
 -4.846817391879199e-15   10    4    5    2
 0.1026976104260204   10    4    5    5
 -5.426093060111048e-15   10    4    6    4
 0.08440184709392147   10    4    6    6
 -4.200199216208844e-15   10    4    7    3
 -1.160841713553074e-15   10    4    7    4
 0.0008114854286777897   10    4    7    6
 0.0809576782366445   10    4    7    7
 -2.716116177456374e-15   10    4    8    1
 0.03098787151331844   10    4    8    2
 -4.572947923109361e-15   10    4    8    5
 0.03583780957896745   10    4    8    8
 -0.02933857677154408   10    4    9    1
 -6.294271337860605e-15   10    4    9    2
 -0.02876393926648555   10    4    9    5
 0.03985112755915481   10    4    9    9
 0.002627238210873206   10    4   10    3
 0.07333019891073264   10    4   10    4
 0.000480589592118774   10    5    3    1
 0.01195004467916819   10    5    4    1
 0.0001251117531620225   10    5    5    3
 0.003110951765692273   10    5    5    4
 -0.002494290759108999   10    5    6    2
 -0.0006111307289799399   10    5    7    2
 0.001812547956795741   10    5    8    6
 0.0004440956813484588   10    5    8    7
 0.0001361628806684131   10    5    9    3
 0.003385742293040883   10    5    9    4
 -9.663404653376436e-05   10    5   10    1
 -1.219659681410412e-15   10    5   10    2
 0.01236395058210894   10    5   10    5
 -9.979755737077323e-15   10    6    1    1
 -0.02116324241473353   10    6    2    1
 -7.99452734914774e-15   10    6    2    2
 -7.616845522362414e-15   10    6    3    3
 -8.632968258819134e-15   10    6    4    4
 -2.26478991810497e-15   10    6    5    1
 0.03135798078954684   10    6    5    2
 -4.449348875446013e-15   10    6    5    5
 -0.006610388371857268   10    6    6    3
 0.03575272631334242   10    6    6    4
 -5.581933569878683e-15   10    6    6    6
 0.03048423447649719   10    6    7    3
 0.006822268947280095   10    6    7    4
 -4.949166076961831e-15   10    6    7    7
 -0.01797676690339192   10    6    8    1
 -3.906583715372614e-15   10    6    8    2
 0.01152549094321273   10    6    8    5
 -1.226449497515603e-15   10    6    8    8
 5.401956009246089e-15   10    6    9    1
 -0.007423131368059077   10    6    9    2
 -1.226124236863857e-15   10    6    9    5
 0.008249593606746522   10    6    9    8
 -6.143523190171862e-15   10    6    9    9
 -7.482697526373962e-15   10    6   10    4
 0.04180552746473391   10    6   10    6
 -2.566963839840258e-15   10    7    1    1
 -0.005185244630066827   10    7    2    1
 -2.072466005233198e-15   10    7    2    2
 -2.02043785348105e-15   10    7    3    3
 -2.1871788302469e-15   10    7    4    4
 0.00768307607654381   10    7    5    2
 -1.2079096403661e-15   10    7    5    5
 0.0009886659816003107   10    7    6    3
 0.008008479008652057   10    7    6    4
 -1.377858330903203e-15   10    7    6    6
 0.008220359584074868   10    7    7    3
 0.004279825855244924   10    7    7    4
 -1.423123771604473e-15   10    7    7    7
 -0.004404520452257453   10    7    8    1
 0.002823881560822226   10    7    8    5
 1.328528826121007e-15   10    7    9    1
 -0.001818754957780583   10    7    9    2
 0.002021247978515628   10    7    9    8
 -1.597463480940142e-15   10    7    9    9
 -1.81751925250502e-15   10    7   10    4
 0.008680534495909593   10    7   10    6
 0.008503317890340478   10    7   10    7
 0.0005293719947590741   10    8    3    2
 -4.010599361295442e-15   10    8    4    1
 0.01316303784562177   10    8    4    2
 -0.009848580474426657   10    8    6    1
 1.212774997615129e-15   10    8    6    2
 0.01003563524317939   10    8    6    5
 -0.002413018667841253   10    8    7    1
 0.002458849297959078   10    8    7    5
 0.0001827995147033456   10    8    8    3
 0.004545380099482874   10    8    8    4
 2.637744877528143e-15   10    8    8    6
 -4.325322287902539e-15   10    8    9    4
 0.003205105669276774   10    8    9    6
 0.000785288786790255   10    8    9    7
 0.004814911595738556   10    8   10    2
 -1.584615685196189e-15   10    8   10    5
 0.007669311891166685   10    8   10    8
 -0.001111377420074523   10    9    3    1
 -0.02763482614502174   10    9    4    1
 -3.41512842311209e-15   10    9    4    2
 0.0001884458205359075   10    9    5    3
 0.004685777661306644   10    9    5    4
 2.204576039950557e-15   10    9    6    1
 0.01345321753465183   10    9    6    2
 -1.773321073317291e-15   10    9    6    5
 0.003296197369553811   10    9    7    2
 -5.027714936171629e-15   10    9    8    4
 0.01005441295160896   10    9    8    6
 0.002463450058555746   10    9    8    7
 -0.0006184047732746469   10    9    9    3
 -0.01537687205805446   10    9    9    4
 -2.350055642707377e-15   10    9    9    6
 -0.002667094783812088   10    9   10    1
 -0.009129295600266997   10    9   10    5
 3.20576898360514e-15   10    9   10    8
 0.02230659030521105   10    9   10    9
 0.506377241034203   10   10    1    1
 5.615733572605919e-15   10   10    2    1
 0.4178630722746237   10   10    2    2
 0.4392351117072627   10   10    3    3
 0.001240193067465869   10   10    4    3
 0.4700231120808325   10   10    4    4
 0.03424958990942199   10   10    5    1
 -1.410720498751239e-14   10   10    5    2
 0.4237365201314212   10   10    5    5
 2.176210600612904e-15   10   10    6    3
 -1.379178347048204e-14   10   10    6    4
 0.4233557749283463   10   10    6    6
 -1.081426614923942e-14   10   10    7    3
 -3.06514796183377e-15   10   10    7    4
 0.006333003137274997   10   10    7    6
 0.3990596906477983   10   10    7    7
 2.807812576194335e-15   10   10    8    1
 0.0535748982758049   10   10    8    2
 -6.548581121812447e-15   10   10    8    5
 0.3058551941569844   10   10    8    8
 -0.01987102865450304   10   10    9    1
 -1.126009008256545e-14   10   10    9    2
 -0.05017430326971993   10   10    9    5
 1.432187701766452e-14   10   10    9    8
 0.3532792827835562   10   10    9    9
 0.002570717718386939   10   10   10    3
 0.06392188282067578   10   10   10    4
 -8.092430805323181e-15   10   10   10    6
 -2.083402894648145e-15   10   10   10    7
 0.4151718332876426   10   10   10   10
 0.03454473839370584   11    1    3    1
 -0.001389270264689622   11    1    4    1
 6.970577820420995e-05   11    1    5    3
 -2.803326047298223e-06   11    1    5    4
 0.003811260401100881   11    1    6    2
 -0.0155554141662807   11    1    7    2
 0.002673762412935485   11    1    8    6
 -0.0109127892975856   11    1    8    7
 -0.002504718426992244   11    1    9    3
 0.0001007311386290462   11    1    9    4
 2.471655692615204e-15   11    1    9    7
 0.02248591642562978   11    1   11    1
 0.01329202112557305   11    2    3    2
 -0.0005345592575322414   11    2    4    2
 0.002370164869263403   11    2    6    1
 -0.001688482809621294   11    2    6    5
 -0.009673675452118466   11    2    7    1
 0.006891433975153695   11    2    7    5
 0.008638940078743855   11    2    8    3
 -0.0003474283820896163   11    2    8    4
 -2.193069944395054e-15   11    2    9    3
 0.0005283942916256388   11    2    9    6
 -0.002156607312101044   11    2    9    7
 0.01301242139150895   11    2   11    2
 0.1574405045954584   11    3    1    1
 0.09444441618844988   11    3    2    2
 0.1124074925789926   11    3    3    3
 -0.0001492435641061054   11    3    4    3
 0.1049854955636859   11    3    4    4
 0.03105520158530898   11    3    5    1
 -2.63504496000877e-15   11    3    5    2
 0.1026976104260203   11    3    5    5
 -2.492001424008253e-15   11    3    6    4
 0.08095767823664447   11    3    6    6
 -2.725684261628558e-15   11    3    7    3
 -0.0008114854286777845   11    3    7    6
 0.08440184709392139   11    3    7    7
 -3.465780993357898e-15   11    3    8    1
 0.03098787151331895   11    3    8    2
 -4.130593436735275e-15   11    3    8    5
 0.0358378095789715   11    3    8    8
 -0.02933857677154415   11    3    9    1
 -6.489095691992672e-15   11    3    9    2
 -0.02876393926648556   11    3    9    5
 0.03985112755915479   11    3    9    9
 0.002627238210873206   11    3   10    3
 0.05732437421199754   11    3   10    4
 -4.71787864851636e-15   11    3   10    6
 -1.183081410616182e-15   11    3   10    7
 0.0669376799031605   11    3   10   10
 0.07333019891073268   11    3   11    3
 -0.006331714225169855   11    4    1    1
 -0.003798228765874511   11    4    2    2
 -0.00422215463171394   11    4    3    3
 0.003710998507653285   11    4    4    3
 -0.004520641759926185   11    4    4    4
 -0.001248933126506836   11    4    5    1
 -0.004130143780320053   11    4    5    5
 -0.004136580395481751   11    4    6    6
 0.00172208442863844   11    4    7    6
 -0.002513609538126198   11    4    7    7
 -0.001246225343171809   11    4    8    2
 -0.001441273129129936   11    4    8    8
 0.001179896395580939   11    4    9    1
 0.001156786456531612   11    4    9    5
 -0.001602674939995287   11    4    9    9
 0.007897253887490562   11    4   10    3
 -0.002627238210873203   11    4   10    4
 -0.002692002678292549   11    4   10   10
 -0.002627238210873203   11    4   11    3
 0.008108570811244569   11    4   11    4
 0.0119500446791682   11    5    3    1
 -0.0004805895921187757   11    5    4    1
 0.003110951765692257   11    5    5    3
 -0.0001251117531620199   11    5    5    4
 0.0006111307289799472   11    5    6    2
 -0.002494290759109032   11    5    7    2
 1.097537859207076e-15   11    5    8    3
 -0.0004440956813484512   11    5    8    6
 0.001812547956795703   11    5    8    7
 0.003385742293040885   11    5    9    3
 -0.0001361628806684161   11    5    9    4
 -9.66340465337702e-05   11    5   11    1
 0.01236395058210894   11    5   11    5
 1.198881963214264e-15   11    6    1    1
 0.005185244630066815   11    6    2    1
 1.162766172409235e-15   11    6    2    2
 1.086614522319285e-15   11    6    3    3
 1.008652339304578e-15   11    6    4    4
 -0.007683076076543773   11    6    5    2
 0.004279825855244924   11    6    6    3
 -0.008220359584074844   11    6    6    4
 -0.008008479008652026   11    6    7    3
 0.0009886659816003083   11    6    7    4
 0.004404520452257444   11    6    8    1
 -0.002823881560822143   11    6    8    5
 -1.167653552514893e-15   11    6    9    1
 0.001818754957780602   11    6    9    2
 -0.002021247978515517   11    6    9    8
 1.112608269404625e-15   11    6    9    9
 1.047745874435679e-15   11    6   10    4
 -0.008680534495909581   11    6   10    6
 0.004249650706554946   11    6   10    7
 1.28265182763182e-15   11    6   10   10
 0.008503317890340471   11    6   11    6
 -4.460428066396099e-15   11    7    1    1
 -0.02116324241473346   11    7    2    1
 -4.567472702138309e-15   11    7    2    2
 -4.244000983977259e-15   11    7    3    3
 -3.77841090155233e-15   11    7    4    4
 -1.323051911084061e-15   11    7    5    1
 0.03135798078954665   11    7    5    2
 -0.006822268947280052   11    7    6    3
 0.03048423447649709   11    7    6    4
 -2.193313889883863e-15   11    7    6    6
 0.03575272631334227   11    7    7    3
 0.006610388371857258   11    7    7    4
 -2.201364091014568e-15   11    7    7    7
 -0.01797676690339189   11    7    8    1
 -2.716482095689587e-15   11    7    8    2
 0.01152549094321222   11    7    8    5
 4.685623633884917e-15   11    7    9    1
 -0.007423131368059171   11    7    9    2
 -2.385136359250861e-15   11    7    9    5
 0.008249593606745939   11    7    9    8
 -4.530230357513432e-15   11    7    9    9
 -3.917328328308534e-15   11    7   10    4
 0.02905255886783844   11    7   10    6
 0.008680534495909574   11    7   10    7
 -5.162466760772356e-15   11    7   10   10
 -3.651159236062185e-15   11    7   11    3
 -0.008680534495909584   11    7   11    6
 0.04180552746473386   11    7   11    7
 -4.883924211232515e-15   11    8    3    1
 0.01316303784562174   11    8    3    2
 -0.0005293719947590752   11    8    4    2
 1.177551979536506e-15   11    8    5    3